9
Lattice="20.0 0.0 0.0 0.0 20.0 0.0 0.0 0.0 20.0" Properties=species:S:1:pos:R:3:forces:R:3 energy=-47.37415785 pbc="T T T"
Cl      17.29520000      11.67170000      13.92660000      -1.50964200       0.54097800      -0.02797400
Cl      12.88960000      12.49040000      11.71150000       0.56936700       0.13093400       0.54369000
Cl      14.39030000      15.67830000      10.69740000       0.46702500      -0.38641300       0.62930700
Cl      14.75470000      12.08770000      16.89340000      -0.38227600      -0.39499500       0.02811700
Cl      16.30640000      15.29410000      14.33300000       0.18192000      -0.38808300      -0.39398300
Cl      13.23290000      14.82520000      14.58260000       0.25374800      -0.56872500      -0.30403300
Mo      14.90880000      12.19540000      13.06760000       0.58768800      -0.61469400      -1.23618700
Mo      15.10280000      13.14150000      14.88980000       1.24946500       1.20489700       1.31366400
Mo      14.75920000      14.43970000      12.68590000      -1.41729500       0.47610300      -0.55260100
9
Lattice="20.0 0.0 0.0 0.0 20.0 0.0 0.0 0.0 20.0" Properties=species:S:1:pos:R:3:forces:R:3 energy=-47.06604417 pbc="T T T"
Cl      16.11220000      11.41510000      13.55560000       0.13675400      -0.26274500      -0.77810600
Cl      13.34980000      12.77250000      10.34510000      -0.28100300       0.27004700       0.27720400
Cl      16.36700000      14.54720000      11.22810000      -0.42235700      -0.29464300       0.91439000
Cl      13.07680000      11.86430000      14.16580000       0.60236100       0.79421000       0.12854100
Cl      16.17320000      13.27700000      17.17810000      -0.15775500      -0.19556900      -1.50529800
Cl      13.82090000      15.47160000      15.52600000       0.84743700      -0.89560800      -1.38978400
Mo      14.35670000      12.92850000      12.41270000       1.32738700      -0.15293600      -0.63016800
Mo      15.26590000      13.06670000      14.93790000      -1.05341800       1.95654300       1.76248100
Mo      15.13670000      14.77890000      13.34650000      -0.99940400      -1.21929900       1.22074200
9
Lattice="20.0 0.0 0.0 0.0 20.0 0.0 0.0 0.0 20.0" Properties=species:S:1:pos:R:3:forces:R:3 energy=-47.12079014 pbc="T T T"
Cl      15.71590000      10.62370000      12.81160000      -0.28605500       1.42903800       0.49896400
Cl      16.77820000      13.38950000      10.40620000       0.02479700       0.08825700       0.71115200
Cl      12.41810000      14.69290000      16.12180000       0.38545900      -0.65982300      -0.72283900
Cl      15.97390000      14.18780000      16.26390000      -0.13135100      -0.43329200      -0.82960800
Cl      12.87410000      13.29270000      12.27900000       0.47589300      -0.44159100      -0.23494500
Cl      14.80070000      15.65840000      12.84830000       0.14399400      -0.33262800       0.35218700
Mo      15.60640000      12.57450000      14.46500000      -0.16186700       0.22224200      -0.56000300
Mo      15.45690000      13.37630000      12.35100000      -0.47878100      -1.11979600      -0.83639900
Mo      13.82140000      13.90060000      14.34940000       0.02791100       1.24759200       1.62149000
9
Lattice="20.0 0.0 0.0 0.0 20.0 0.0 0.0 0.0 20.0" Properties=species:S:1:pos:R:3:forces:R:3 energy=-47.1477598 pbc="T T T"
Cl      15.71280000      11.23840000      12.48180000      -0.81527100       0.74464300       0.83367900
Cl      13.82030000      13.93850000      10.02060000       0.32018700      -0.54632700       1.33798300
Cl      17.12660000      13.91870000      12.92550000      -0.61866900       0.13717100       0.22585900
Cl      16.47020000      12.77650000      16.80260000       0.46109200       0.52143400      -0.04593900
Cl      13.41280000      12.25560000      15.85950000       0.11397900       0.23067900      -0.96656700
Cl      13.77680000      16.14800000      12.96600000       0.38319500      -0.64945800       0.27103500
Mo      14.76350000      13.47190000      12.21140000       0.09954900       1.22611100      -1.42022900
Mo      15.66190000      12.89500000      14.66250000      -0.54395200      -0.77371200       0.03708300
Mo      13.80960000      14.06430000      14.17140000       0.59989100      -0.89054000      -0.27290300
9
Lattice="20.0 0.0 0.0 0.0 20.0 0.0 0.0 0.0 20.0" Properties=species:S:1:pos:R:3:forces:R:3 energy=-46.96657995 pbc="T T T"
Cl      14.40720000      10.71190000      12.87630000       0.23357000       0.63965600       0.30032900
Cl      18.08610000      11.75560000      12.28240000      -1.31650200       0.92248000       0.72672200
Cl      14.50340000      14.19700000      11.23730000       0.04287600      -0.60693800       1.59746800
Cl      12.03530000      15.84280000      14.11540000       0.34625000      -0.78738900      -0.16888300
Cl      14.33180000      13.90770000      16.54700000       0.08987800      -0.26345300      -0.92027500
Cl      16.44130000      15.26100000      13.58440000      -0.72917300      -0.23238500       0.06401400
Mo      16.05600000      12.99870000      12.90500000      -0.31418900      -1.47606700      -0.20341500
Mo      14.47370000      12.45610000      14.58610000       0.38274200       1.44381400      -1.97503000
Mo      13.89520000      14.45900000      13.70690000       1.26454700       0.36028300       0.57907000
9
Lattice="20.0 0.0 0.0 0.0 20.0 0.0 0.0 0.0 20.0" Properties=species:S:1:pos:R:3:forces:R:3 energy=-47.2106554 pbc="T T T"
Cl      16.72070000      13.12150000      14.97300000       0.16934400       0.49544300      -0.11221000
Cl      17.12570000      11.34840000      11.36840000      -0.67215500       0.26462700       0.24947700
Cl      16.10510000      14.83580000      11.60440000       1.55252600       0.21153600      -0.63290100
Cl      13.75330000      14.72810000      16.85630000      -0.01453600       0.52085500      -0.05504400
Cl      14.43220000      11.21680000      14.29680000      -0.26719100       0.28139700       0.09122700
Cl      11.91530000      14.06130000      13.32970000       0.30250700      -0.09126200       0.17911900
Mo      15.74430000      12.58760000      12.83920000       0.30365700       0.53451000      -0.51387700
Mo      14.38510000      13.74780000      14.88390000      -0.59568100      -1.24575700      -0.90521100
Mo      14.20420000      14.45190000      12.81510000      -0.77847100      -0.97134700       1.69942100
9
Lattice="20.0 0.0 0.0 0.0 20.0 0.0 0.0 0.0 20.0" Properties=species:S:1:pos:R:3:forces:R:3 energy=-46.6166475 pbc="T T T"
Cl      17.18110000      11.04750000      11.74400000      -0.70238100       1.18789300       0.68938400
Cl      13.20640000      13.23000000      11.67780000       0.94823900      -0.19287200       1.25531500
Cl      16.05090000      14.73690000      11.83690000      -0.47246200       0.12844900       0.58920200
Cl      14.84710000      10.61770000      14.45600000       0.02032100       1.22292200      -0.11785400
Cl      12.41590000      16.12710000      14.29760000      -0.02749000      -0.50698000       0.00633000
Cl      15.56960000      15.29110000      15.90160000      -0.18997900      -0.80760000      -0.66475400
Mo      15.59130000      12.61200000      12.76480000      -0.19184200      -1.88536100       0.51400000
Mo      15.11030000      13.05080000      15.03570000      -0.80369700       0.50327900      -2.74209100
Mo      13.92070000      14.48230000      13.66670000       1.41929000       0.35027100       0.47046600
9
Lattice="20.0 0.0 0.0 0.0 20.0 0.0 0.0 0.0 20.0" Properties=species:S:1:pos:R:3:forces:R:3 energy=-46.86252489 pbc="T T T"
Cl      14.86320000      10.65610000      14.67970000      -0.27389400       1.11276200      -0.19391700
Cl      18.11810000      12.15690000      14.78010000       0.03602000       0.32182000       0.29034800
Cl      15.33810000      12.72900000      11.38810000       0.50001600      -0.50520900       0.38007600
Cl      12.12800000      14.81560000      11.34840000       1.08693700      -0.78412500       0.92030700
Cl      16.43430000      15.23990000      12.87520000      -0.86188800       0.01351900       0.34208400
Cl      12.98470000      15.27250000      15.09310000       0.83847300      -1.15031200      -0.62344400
Mo      16.24670000      13.10830000      13.87240000      -0.96865300      -1.56812600      -0.44859200
Mo      14.13090000      13.01020000      14.76330000       0.97364700       0.95259100      -1.56110200
Mo      14.02460000      14.09310000      12.73890000      -1.33065900       1.60708100       0.89424000
9
Lattice="20.0 0.0 0.0 0.0 20.0 0.0 0.0 0.0 20.0" Properties=species:S:1:pos:R:3:forces:R:3 energy=-47.10265474 pbc="T T T"
Cl      17.06190000      10.42030000      12.98130000      -0.60795100       0.25097300      -0.08428200
Cl      17.28090000      13.80870000      11.83660000      -1.33591000      -0.03523900       0.85507700
Cl      16.07960000      13.65600000      15.69310000      -0.11790300      -0.18547700      -0.87018100
Cl      13.94070000      11.59710000      14.78740000      -0.89129900       0.07279100       0.24207000
Cl      12.19340000      14.35650000      12.38200000       1.61003000      -0.59126600       0.36607000
Cl      12.90030000      16.18450000      15.18380000       1.11223000      -1.00708600      -0.30864300
Mo      15.75000000      12.27000000      13.53070000       1.85634900       1.29932700      -0.56587700
Mo      14.78180000      14.10590000      12.39940000      -0.22395000      -0.72548500       1.00936700
Mo      14.02190000      14.14860000      14.44710000      -1.40159600       0.92146200      -0.64360200
9
Lattice="20.0 0.0 0.0 0.0 20.0 0.0 0.0 0.0 20.0" Properties=species:S:1:pos:R:3:forces:R:3 energy=-47.09647458 pbc="T T T"
Cl      17.77150000      12.83000000      14.30120000      -1.66445000      -0.02792800      -0.80805500
Cl      14.26570000      13.52550000      10.83060000      -0.07271300      -0.13107600       0.19553800
Cl      12.60930000      13.04820000      14.17530000       0.49080700       0.04886600      -0.45662700
Cl      15.01000000      10.17310000      15.48810000      -0.09646200       0.99724100      -0.87320200
Cl      14.75830000      14.70650000      15.67900000       0.41287700      -0.45565900      -0.16243300
Cl      13.69430000      16.72200000      12.26810000       0.54604100      -0.62127800       0.65412400
Mo      15.82700000      13.09280000      12.56660000      -0.60195000       0.53418500       2.65055000
Mo      14.92550000      12.36730000      14.49220000       1.48220000      -0.14160800       0.65680800
Mo      14.29900000      14.70170000      13.36350000      -0.49635000      -0.20274100      -1.85670300
9
Lattice="20.0 0.0 0.0 0.0 20.0 0.0 0.0 0.0 20.0" Properties=species:S:1:pos:R:3:forces:R:3 energy=-46.95527906 pbc="T T T"
Cl      15.31680000      10.76800000      11.06240000      -0.44122300       0.54870300       0.72428200
Cl      16.07230000      14.43040000      10.98220000      -1.26519200      -0.23676300       1.40939600
Cl      14.24700000      11.44380000      14.98270000      -0.32231700       0.52741700      -0.39822000
Cl      16.99830000      12.63250000      14.11080000       0.42862300       0.63319200       0.41123600
Cl      12.37340000      15.05730000      14.56660000       1.41304100      -0.84292500      -0.80607300
Cl      15.34360000      15.35370000      16.60270000       0.44757100       0.12898000      -0.20966000
Mo      15.03190000      12.37330000      12.83290000       0.29702800      -0.28090400      -1.20516000
Mo      14.93950000      13.82940000      14.94500000      -1.43314500      -0.08514700      -1.12267100
Mo      14.25170000      14.44660000      12.80510000       0.87561500      -0.39255300       1.19687000
9
Lattice="20.0 0.0 0.0 0.0 20.0 0.0 0.0 0.0 20.0" Properties=species:S:1:pos:R:3:forces:R:3 energy=-47.29448484 pbc="T T T"
Cl      15.03300000      10.46390000      14.06650000       0.13020300       1.32932500      -0.21065600
Cl      14.50310000      11.56760000      10.42200000       0.45752200       0.30513600       0.38321900
Cl      12.48530000      13.43110000      13.63590000       0.38168200      -0.40883700      -0.03428300
Cl      14.19230000      16.03480000      16.17850000       0.04227500      -0.65907800      -0.12619600
Cl      17.33010000      14.66880000      14.55190000       0.10439100       0.44364000      -0.11755400
Cl      14.54350000      15.16750000      12.03260000       0.15985700      -0.22857700       0.46565600
Mo      14.61670000      12.77460000      12.43330000      -0.82769700      -0.96895600      -0.11306800
Mo      15.97230000      12.80880000      14.20940000      -1.05180400      -1.14792800      -0.13162600
Mo      14.47060000      14.45700000      14.46500000       0.60357200       1.33527500      -0.11549200
9
Lattice="20.0 0.0 0.0 0.0 20.0 0.0 0.0 0.0 20.0" Properties=species:S:1:pos:R:3:forces:R:3 energy=-47.21325075 pbc="T T T"
Cl      16.66200000      12.42880000      14.89790000      -0.66042700      -0.06004500       0.07598400
Cl      16.11290000      10.92800000      11.18880000      -0.37135000       0.23698500       0.73728800
Cl      16.60450000      14.79490000      12.98230000       0.21802200       0.20721200      -0.52683300
Cl      12.95570000      12.70240000      15.69750000       0.54712400       0.39998500      -0.98077000
Cl      14.57710000      16.09670000      16.18970000       0.04887300      -0.40172100      -0.78908100
Cl      13.76730000      13.76570000      10.73110000       0.23561500      -0.33832800       1.97540800
Mo      15.54430000      12.57970000      12.76930000      -0.12698800       0.29119500      -1.96123200
Mo      15.05090000      14.34290000      14.69590000      -1.34885200      -0.28538700       1.30737500
Mo      13.50670000      13.34580000      13.34690000       1.45798200      -0.04989500       0.16186100
9
Lattice="20.0 0.0 0.0 0.0 20.0 0.0 0.0 0.0 20.0" Properties=species:S:1:pos:R:3:forces:R:3 energy=-47.39755034 pbc="T T T"
Cl      16.73910000      10.34330000      13.26070000      -0.27897400      -0.29894800       0.16032900
Cl      16.86840000      14.74100000      13.18700000      -0.38421000      -0.34750300      -0.07440100
Cl      14.81220000      12.38970000      10.76980000      -0.02945000       0.30447700       0.81483900
Cl      12.20920000      13.54500000      14.70770000       0.83380400      -0.12626800      -0.34138400
Cl      15.97290000      13.19800000      15.80150000      -0.74442200       0.26801300      -0.84707100
Cl      13.62340000      16.82520000      14.72980000       0.56967500      -0.75373200      -0.63325000
Mo      15.83850000      12.42780000      13.48470000       0.32079300       0.65736600      -0.83246800
Mo      13.78070000      12.96810000      12.89780000       0.88658500       0.67259600       0.83618000
Mo      14.65050000      14.75220000      14.14540000      -1.17380200      -0.37600100       0.91722500
9
Lattice="20.0 0.0 0.0 0.0 20.0 0.0 0.0 0.0 20.0" Properties=species:S:1:pos:R:3:forces:R:3 energy=-47.14085507 pbc="T T T"
Cl      13.04270000      11.99410000      12.91390000       0.60599200      -0.57317300       0.00002300
Cl      16.55650000      11.25530000      14.46620000      -0.06443500      -0.28618200      -0.35054700
Cl      16.96810000      12.19250000      10.64370000      -0.68578600       0.67356400       1.04290800
Cl      13.97130000      14.60940000      11.67600000       0.62100200       0.20844800       0.32287800
Cl      12.23530000      14.87660000      15.61070000      -0.08158700      -0.58820900       0.00604200
Cl      15.46370000      15.74520000      15.12230000       0.14334500       0.55891100      -0.07128100
Mo      15.50020000      12.89350000      12.47390000      -0.25620100      -1.21553900       0.54902100
Mo      15.78630000      13.46270000      14.71730000      -0.49999900      -0.08985000      -1.47849200
Mo      13.71750000      13.92810000      14.08430000       0.21766900       1.31203100      -0.02055200
9
Lattice="20.0 0.0 0.0 0.0 20.0 0.0 0.0 0.0 20.0" Properties=species:S:1:pos:R:3:forces:R:3 energy=-46.97829996 pbc="T T T"
Cl      16.98530000      12.36350000      13.36930000      -0.70821900       0.01305300      -0.05742500
Cl      15.13300000      13.24960000       9.92458000      -0.16920500      -0.38908800       0.22867000
Cl      13.78490000      11.30240000      15.35450000       0.21415300       1.15279000      -0.88854300
Cl      16.04380000      13.64780000      17.24280000      -0.44982700       0.25055800      -1.25597600
Cl      12.58990000      14.80000000      12.12410000       0.49464800      -0.11910700       0.32385700
Cl      16.29600000      15.39200000      13.66020000      -0.20408400       0.09224000      -0.63507800
Mo      15.11000000      13.48450000      12.22650000      -0.48813000       1.17677000       0.69677400
Mo      15.49650000      13.57280000      14.89040000      -1.08404300      -1.44830500       1.26589000
Mo      13.43870000      13.19690000      13.69950000       2.39470600      -0.72891000       0.32183100
9
Lattice="20.0 0.0 0.0 0.0 20.0 0.0 0.0 0.0 20.0" Properties=species:S:1:pos:R:3:forces:R:3 energy=-47.25900619 pbc="T T T"
Cl      17.15110000      10.48130000      12.84780000      -1.02872100       0.83769000       0.26020500
Cl      15.14940000      13.28320000      10.71360000      -0.01028700      -0.11882200       0.52822100
Cl      15.55590000      12.78660000      15.78140000      -0.49059200       0.28993900      -0.43608600
Cl      11.90760000      13.21020000      14.24610000       1.09464300       0.01366100      -0.26694600
Cl      16.95830000      14.66270000      13.72010000      -0.98675200      -0.01397800      -0.11506700
Cl      13.52880000      16.55870000      15.20180000       0.15055700      -0.25510000      -0.52490300
Mo      15.86280000      12.46480000      13.38660000       0.98579400      -0.36702400      -0.48322600
Mo      13.87920000      13.07680000      12.73610000       0.08845500       0.82910000       0.70255900
Mo      14.51820000      14.62840000      14.38520000       0.19690300      -1.21546500       0.33524200
9
Lattice="20.0 0.0 0.0 0.0 20.0 0.0 0.0 0.0 20.0" Properties=species:S:1:pos:R:3:forces:R:3 energy=-47.3073992 pbc="T T T"
Cl      16.05580000       9.94304000      14.48950000      -0.65704000       1.07450600      -0.44050500
Cl      17.75280000      13.10910000      13.20230000      -0.87982500       0.05893700       0.00377700
Cl      12.83080000      12.37230000      14.47790000       0.44010500       0.29106200      -0.60882900
Cl      15.09420000      13.86430000      16.07350000       0.19084100      -0.10220000      -1.40866000
Cl      13.46440000      14.19260000      11.12240000       0.57121500      -0.12917000       0.82537400
Cl      13.48010000      16.80000000      13.74930000       0.59194400      -0.48790900       0.13073600
Mo      15.21050000      12.18140000      14.07530000       1.22475900       0.38629200       0.59490500
Mo      15.53040000      13.71000000      12.37670000      -0.38518800      -0.62772600       1.04791800
Mo      14.10050000      14.53770000      13.83260000      -1.09681100      -0.46379200      -0.14471700
9
Lattice="20.0 0.0 0.0 0.0 20.0 0.0 0.0 0.0 20.0" Properties=species:S:1:pos:R:3:forces:R:3 energy=-47.34321732 pbc="T T T"
Cl      15.67820000      11.31890000      14.52330000       0.12005300       0.39735500      -0.45570300
Cl      17.02700000      13.99220000      11.54580000      -0.39055300      -0.25529700       0.63244300
Cl      12.70140000      12.17780000      14.04790000       1.26530900       0.85042400      -0.27414900
Cl      13.89050000      16.04100000      14.30770000      -0.58281100       0.02532500       0.29174800
Cl      15.17240000      14.20880000      17.21950000       0.38082200      -0.02395000      -0.19680500
Cl      14.27870000      11.93270000      10.29490000      -0.19130500       0.41524100       0.55162400
Mo      14.69030000      12.55300000      12.50840000       0.25455500      -0.34068600       0.15274700
Mo      14.81620000      13.48700000      15.06850000      -1.20214200       0.22411000      -0.56478300
Mo      15.30890000      14.61450000      13.14210000       0.34607200      -1.29252200      -0.13712200
9
Lattice="20.0 0.0 0.0 0.0 20.0 0.0 0.0 0.0 20.0" Properties=species:S:1:pos:R:3:forces:R:3 energy=-47.27923483 pbc="T T T"
Cl      17.90040000      13.64580000      15.93670000      -1.13191900       0.01419800      -1.27329800
Cl      14.91870000      10.98830000      13.65560000      -0.17330000       0.49521600       0.65753800
Cl      12.37680000      12.74080000      11.00680000      -0.03474500      -0.12213900       0.54742200
Cl      16.58510000      12.88340000      12.06070000      -0.11978500       0.55703300      -0.28780000
Cl      14.25760000      13.72100000      16.42580000       0.11958900      -0.26675500      -0.46371300
Cl      13.94870000      15.79240000      12.03610000       0.33221500      -0.88219800       0.85073800
Mo      16.04900000      13.22490000      14.35750000       0.81278100      -0.78035500       2.00475800
Mo      14.10490000      12.95810000      12.53980000       0.26481300       0.09865600      -1.76192400
Mo      14.20370000      14.43440000      14.12380000      -0.06964900       0.88634500      -0.27372100
9
Lattice="20.0 0.0 0.0 0.0 20.0 0.0 0.0 0.0 20.0" Properties=species:S:1:pos:R:3:forces:R:3 energy=-47.04663331 pbc="T T T"
Cl      16.15630000      12.26790000      11.21780000      -0.24085500       0.30686100       0.22116500
Cl      11.96630000      12.75740000      13.65930000       1.17880700       0.13462800      -0.13460500
Cl      15.13680000      13.93600000      15.97460000      -0.83357100      -0.83062000       0.02246900
Cl      17.82250000      11.26460000      14.23580000      -0.28765000      -0.23398700       0.22006000
Cl      12.49210000      16.29920000      13.64990000       0.52759400      -0.36929200      -0.39130000
Cl      16.35020000      15.27470000      13.74870000       0.13240700      -0.45531300      -0.76433800
Mo      14.27130000      12.61290000      12.63650000       0.19426700       0.37278700       1.39138400
Mo      16.07550000      12.74030000      14.10890000      -0.03344100       1.18461600      -1.24837900
Mo      14.03420000      14.51490000      13.77150000      -0.63755600      -0.10967900       0.68354500
9
Lattice="20.0 0.0 0.0 0.0 20.0 0.0 0.0 0.0 20.0" Properties=species:S:1:pos:R:3:forces:R:3 energy=-46.97108384 pbc="T T T"
Cl      15.26060000      10.94740000      13.52190000      -0.50858100       0.59837300       0.34617300
Cl      17.23850000      13.30490000      14.09530000      -0.53928200       0.27838200      -0.71510600
Cl      15.60030000      12.92410000       9.97648000      -0.44844100      -0.33116300       0.70368700
Cl      15.18410000      15.83070000      11.86240000      -0.57187200      -1.19850100       1.17845700
Cl      15.11470000      13.64220000      17.28930000       0.01230800       0.26613200      -0.75860500
Cl      12.11310000      13.26040000      14.93940000       1.11586600       0.26088000      -0.62900400
Mo      15.28150000      12.98620000      12.30240000       0.96584100       1.62520800      -0.36417500
Mo      15.03730000      13.22820000      14.97900000      -1.03496100      -0.94432200       0.60104400
Mo      13.84530000      14.35200000      13.53170000       1.00912200      -0.55498900      -0.36247100
9
Lattice="20.0 0.0 0.0 0.0 20.0 0.0 0.0 0.0 20.0" Properties=species:S:1:pos:R:3:forces:R:3 energy=-47.22248638 pbc="T T T"
Cl      16.86670000      10.29130000      13.94370000      -0.31902500      -0.13608700       0.30088400
Cl      15.42310000      11.88260000      11.15690000      -0.03306200       0.50531000       0.47428500
Cl      15.27750000      13.52900000      16.05940000      -0.44121200      -0.25257400      -1.03502000
Cl      11.95390000      13.72670000      13.84520000       0.30708800       0.03683400       0.15080500
Cl      16.90480000      14.51790000      13.69100000       0.28269500      -0.23043200      -0.39588200
Cl      13.85570000      17.06500000      13.85310000       0.24105000      -0.75416800      -0.39856200
Mo      13.90460000      13.03590000      12.66810000       1.35124600       0.27378100       1.18918100
Mo      15.79160000      12.31780000      13.92430000      -0.54725600       1.24733400      -0.93407700
Mo      14.55270000      14.80520000      13.90130000      -0.84152400      -0.68999800       0.64838600
9
Lattice="20.0 0.0 0.0 0.0 20.0 0.0 0.0 0.0 20.0" Properties=species:S:1:pos:R:3:forces:R:3 energy=-46.76822255 pbc="T T T"
Cl      16.80700000      11.94750000      13.48630000       0.18823400       0.29067500      -1.13901900
Cl      13.22520000      12.20120000      10.41150000       0.36402600       0.30333200       1.54345300
Cl      15.57940000      14.86160000      11.01120000      -0.75718000      -0.66415900       1.79281500
Cl      14.14340000      11.30620000      14.63110000      -0.42613300       0.98377000      -0.50894300
Cl      16.78360000      14.15750000      16.67870000      -0.32114200      -0.22749900      -1.10843700
Cl      13.31860000      14.97230000      15.76160000       0.95794400      -0.61783000      -1.58508100
Mo      14.41890000      12.69370000      12.47870000       0.60823400      -0.27770400      -1.48157600
Mo      15.54540000      13.36060000      14.81130000      -0.71122900       0.57850000       2.73227600
Mo      14.44140000      14.68340000      13.41380000       0.09724600      -0.36908500      -0.24549000
9
Lattice="20.0 0.0 0.0 0.0 20.0 0.0 0.0 0.0 20.0" Properties=species:S:1:pos:R:3:forces:R:3 energy=-47.44025857 pbc="T T T"
Cl      14.77060000      10.48080000      13.29840000      -0.01082600       1.16243000       0.13211400
Cl      17.26510000      12.14940000      11.12570000       0.64777000      -0.10260900      -0.00037200
Cl      13.26850000      13.87360000      11.88080000       0.40687700      -0.67824400       0.16729700
Cl      15.71460000      15.53210000      12.57570000       0.21912500      -0.75116600       0.56091100
Cl      15.81880000      14.26680000      16.33630000      -0.63423800      -0.66077700      -1.22113400
Cl      12.19400000      15.05200000      15.53530000       0.78331200      -0.63581500      -0.76777400
Mo      15.67670000      13.07570000      12.41680000      -1.94403900      -0.04257500       0.32436700
Mo      15.02340000      12.57080000      14.62660000       0.70785500       0.81750000      -0.49246700
Mo      14.01070000      14.38610000      14.11420000      -0.17583500       0.89125700       1.29705600
9
Lattice="20.0 0.0 0.0 0.0 20.0 0.0 0.0 0.0 20.0" Properties=species:S:1:pos:R:3:forces:R:3 energy=-46.83320835 pbc="T T T"
Cl      13.16670000      10.96090000      12.91020000       1.35670000       1.08632600       0.53942300
Cl      14.26140000      13.12040000       9.94812000       0.40807600      -0.06773700       0.31261500
Cl      15.76220000      15.46590000      12.84680000       0.22710100      -0.41571500      -0.08233700
Cl      17.53470000      12.90670000      15.05550000      -1.83531800      -0.04828300      -0.64906700
Cl      12.85350000      14.61180000      13.51000000       0.56539600      -0.31566700       0.34791100
Cl      15.06210000      15.24600000      16.90210000      -0.22525300      -0.67807700      -0.54156500
Mo      14.55800000      13.45770000      12.21860000      -0.76291200      -1.28875000       0.88720200
Mo      15.26370000      12.03950000      13.99900000      -0.50022600       2.43673500      -0.85030200
Mo      15.03340000      14.18170000      14.78460000       0.76643600      -0.70883300       0.03611900
9
Lattice="20.0 0.0 0.0 0.0 20.0 0.0 0.0 0.0 20.0" Properties=species:S:1:pos:R:3:forces:R:3 energy=-47.12171617 pbc="T T T"
Cl      14.88610000      11.26770000      10.61230000      -0.27258400       0.28872900       1.24113300
Cl      15.70590000      14.55120000      11.14270000       1.36598800       0.46984700      -1.30664300
Cl      14.38400000      11.48140000      14.95440000      -0.39026200       0.28479200      -0.25199000
Cl      17.11350000      12.61800000      14.14630000      -0.53469800       0.40479200      -0.24093500
Cl      12.41770000      14.62360000      14.41420000       0.61051100      -0.08920600      -0.13605500
Cl      15.21900000      15.18680000      16.91830000       0.17107900      -0.43110800      -1.07146600
Mo      15.03130000      12.31550000      12.77840000       0.58965900       0.16981500      -1.63150500
Mo      14.32250000      14.48780000      12.89680000      -0.85348000      -1.93518900       2.69878900
Mo      15.10040000      13.83000000      14.95190000      -0.68621300       0.83752900       0.69867100
9
Lattice="20.0 0.0 0.0 0.0 20.0 0.0 0.0 0.0 20.0" Properties=species:S:1:pos:R:3:forces:R:3 energy=-46.79123162 pbc="T T T"
Cl      15.45230000      12.21440000      11.01260000       0.05591600       0.47830400       1.20880700
Cl      13.75350000      15.21620000      10.53240000       0.22582300       0.26762300       0.42552300
Cl      12.59160000      12.50590000      13.96940000       0.45489300      -0.14679700      -0.81840000
Cl      14.85910000      11.83390000      16.96160000       0.02064700      -0.15659600      -0.60000900
Cl      17.38810000      13.81880000      15.16240000       0.07887500       0.44973800       0.53276800
Cl      13.73640000      15.24990000      14.38940000      -0.08888200       0.92546600       1.71412600
Mo      16.27770000      13.16250000      13.25300000      -3.33331600      -0.65355600      -1.13413900
Mo      14.20020000      14.10260000      12.51120000       1.22413100      -2.34357400      -1.85508500
Mo      14.69490000      12.95800000      14.92210000       1.36191300       1.17939300       0.52640800
9