# LAMMPS data file converted for 3Mo6Cl

9 atoms
2 atom types

0.000000 18.000000 xlo xhi
0.000000 18.000000 ylo yhi
0.000000 19.000000 zlo zhi

Masses

1 35.45 # Cl
2 95.95 # Mo

Atoms # atomic

1 1 12.96737000 14.41943000 12.54501000
2 1 16.17022000 15.22780000 12.68249000
3 1 13.27970000 15.13345000 16.05509000
4 1 16.38516000 12.11909000 10.88576000
5 1 16.55839000 13.64353000 15.80884000
6 1 13.68779000 11.00071000 13.00727000
7 2 14.93323000 13.06968000 12.34485000
8 2 15.11989000 12.33994000 14.39497000
9 2 14.66993000 14.47639000 14.38898000
