(written by ASE)

6 atoms
2 atom types

0.0                      20  xlo xhi
0.0                      20  ylo yhi
0.0                      20  zlo zhi

Atoms # atomic

     1   1      11.155425805498513      9.8963168976793963       5.283563812663628
     2   1      13.617724830621041       12.10065815849201      7.2647885993152812
     3   1      13.967672901101071      8.2487427253055259      7.4821781136385948
     4   2      12.820006970377234       10.05895529838339      6.7853607811527086
     5   2      11.182771646511027      9.5944914626152329      9.1251743023639644
     6   2      10.222750845891165      9.2220994575243829      10.453808390865902
