# LAMMPS data file converted for 3Mo6Cl

9 atoms
2 atom types

0.000000 20.000000 xlo xhi
0.000000 20.000000 ylo yhi
0.000000 20.000000 zlo zhi

Masses

1 35.45 # Cl
2 95.95 # Mo

Atoms # atomic

1 1 13.008100 14.551800 12.595900
2 1 16.107000 15.202990 12.549650
3 1 13.196210 14.848480 16.236630
4 1 16.586650 11.904370 11.064560
5 1 16.663850 13.773820 15.663230
6 1 13.516340 11.141020 12.964930
7 2 14.986410 13.040570 12.243800
8 2 15.100240 12.421890 14.335720
9 2 14.606880 14.545070 14.458830